# Region type : patch heater_to_fins
# Faces  :    241
# Area   :    1.550025e-04
# Time        	areaAverage(T)
1             	2.969000e+02
2             	2.971564e+02
3             	2.973899e+02
4             	2.976155e+02
5             	2.978308e+02
6             	2.980401e+02
7             	2.982430e+02
8             	2.984404e+02
9             	2.986322e+02
10            	2.988187e+02
11            	2.990002e+02
12            	2.991768e+02
13            	2.993486e+02
14            	2.995158e+02
15            	2.996785e+02
16            	2.998369e+02
17            	2.999911e+02
18            	3.001412e+02
19            	3.002875e+02
20            	3.004299e+02
21            	3.005687e+02
22            	3.007040e+02
23            	3.008359e+02
24            	3.009645e+02
25            	3.010899e+02
26            	3.012122e+02
27            	3.013316e+02
28            	3.014481e+02
29            	3.015618e+02
30            	3.016729e+02
31            	3.017813e+02
32            	3.018871e+02
33            	3.019906e+02
34            	3.020916e+02
35            	3.021904e+02
36            	3.022869e+02
37            	3.023812e+02
38            	3.024735e+02
39            	3.025637e+02
40            	3.026519e+02
41            	3.027382e+02
42            	3.028227e+02
43            	3.029053e+02
44            	3.029863e+02
45            	3.030655e+02
46            	3.031430e+02
47            	3.032190e+02
48            	3.032934e+02
49            	3.033662e+02
50            	3.034377e+02
51            	3.035076e+02
52            	3.035762e+02
53            	3.036434e+02
54            	3.037093e+02
55            	3.037739e+02
56            	3.038372e+02
57            	3.038993e+02
58            	3.039602e+02
59            	3.040199e+02
60            	3.040785e+02
61            	3.041360e+02
62            	3.041924e+02
63            	3.042477e+02
64            	3.043020e+02
65            	3.043552e+02
66            	3.044074e+02
67            	3.044587e+02
68            	3.045090e+02
69            	3.045584e+02
70            	3.046068e+02
71            	3.046543e+02
72            	3.047010e+02
73            	3.047468e+02
74            	3.047918e+02
75            	3.048359e+02
76            	3.048793e+02
77            	3.049218e+02
78            	3.049636e+02
79            	3.050046e+02
80            	3.050449e+02
81            	3.050844e+02
82            	3.051233e+02
83            	3.051615e+02
84            	3.051990e+02
85            	3.052359e+02
86            	3.052721e+02
87            	3.053077e+02
88            	3.053427e+02
89            	3.053771e+02
90            	3.054109e+02
91            	3.054442e+02
92            	3.054769e+02
93            	3.055091e+02
94            	3.055407e+02
95            	3.055719e+02
96            	3.056025e+02
97            	3.056327e+02
98            	3.056623e+02
99            	3.056915e+02
100           	3.057203e+02
101           	3.057486e+02
102           	3.057764e+02
103           	3.058038e+02
104           	3.058308e+02
105           	3.058574e+02
106           	3.058836e+02
107           	3.059094e+02
108           	3.059348e+02
109           	3.059598e+02
110           	3.059844e+02
111           	3.060087e+02
112           	3.060326e+02
113           	3.060562e+02
114           	3.060794e+02
115           	3.061023e+02
116           	3.061249e+02
117           	3.061471e+02
118           	3.061690e+02
119           	3.061906e+02
120           	3.062119e+02
121           	3.062329e+02
122           	3.062536e+02
123           	3.062740e+02
124           	3.062941e+02
125           	3.063140e+02
126           	3.063336e+02
127           	3.063529e+02
128           	3.063719e+02
129           	3.063907e+02
130           	3.064092e+02
131           	3.064275e+02
132           	3.064455e+02
133           	3.064633e+02
134           	3.064809e+02
135           	3.064982e+02
136           	3.065153e+02
137           	3.065322e+02
138           	3.065488e+02
139           	3.065653e+02
140           	3.065815e+02
141           	3.065976e+02
142           	3.066134e+02
143           	3.066290e+02
144           	3.066445e+02
145           	3.066597e+02
146           	3.066748e+02
147           	3.066897e+02
148           	3.067044e+02
149           	3.067189e+02
150           	3.067333e+02
151           	3.067475e+02
152           	3.067615e+02
153           	3.067753e+02
154           	3.067890e+02
155           	3.068026e+02
156           	3.068159e+02
157           	3.068292e+02
158           	3.068423e+02
159           	3.068552e+02
160           	3.068680e+02
161           	3.068806e+02
162           	3.068932e+02
163           	3.069055e+02
164           	3.069178e+02
165           	3.069299e+02
166           	3.069419e+02
167           	3.069537e+02
168           	3.069654e+02
169           	3.069770e+02
170           	3.069885e+02
171           	3.069999e+02
172           	3.070111e+02
173           	3.070223e+02
174           	3.070333e+02
175           	3.070442e+02
176           	3.070550e+02
177           	3.070657e+02
178           	3.070763e+02
179           	3.070868e+02
180           	3.070972e+02
181           	3.071075e+02
182           	3.071178e+02
183           	3.071279e+02
184           	3.071379e+02
185           	3.071478e+02
186           	3.071577e+02
187           	3.071674e+02
188           	3.071771e+02
189           	3.071867e+02
190           	3.071962e+02
191           	3.072056e+02
192           	3.072150e+02
193           	3.072243e+02
194           	3.072334e+02
195           	3.072426e+02
196           	3.072516e+02
197           	3.072606e+02
198           	3.072695e+02
199           	3.072783e+02
200           	3.072871e+02
201           	3.072958e+02
202           	3.073044e+02
203           	3.073130e+02
204           	3.073215e+02
205           	3.073299e+02
206           	3.073383e+02
207           	3.073466e+02
208           	3.073549e+02
209           	3.073631e+02
210           	3.073712e+02
211           	3.073793e+02
212           	3.073873e+02
213           	3.073953e+02
214           	3.074032e+02
215           	3.074111e+02
216           	3.074189e+02
217           	3.074267e+02
218           	3.074344e+02
219           	3.074421e+02
220           	3.074497e+02
221           	3.074572e+02
222           	3.074648e+02
223           	3.074722e+02
224           	3.074797e+02
225           	3.074871e+02
226           	3.074944e+02
227           	3.075017e+02
228           	3.075090e+02
229           	3.075162e+02
230           	3.075233e+02
231           	3.075304e+02
232           	3.075375e+02
233           	3.075446e+02
234           	3.075516e+02
235           	3.075585e+02
236           	3.075654e+02
237           	3.075723e+02
238           	3.075791e+02
239           	3.075859e+02
240           	3.075927e+02
241           	3.075994e+02
242           	3.076061e+02
243           	3.076127e+02
244           	3.076193e+02
245           	3.076259e+02
246           	3.076324e+02
247           	3.076389e+02
248           	3.076454e+02
249           	3.076518e+02
250           	3.076582e+02
251           	3.076646e+02
252           	3.076709e+02
253           	3.076772e+02
254           	3.076835e+02
255           	3.076898e+02
256           	3.076960e+02
257           	3.077022e+02
258           	3.077083e+02
259           	3.077144e+02
260           	3.077205e+02
261           	3.077266e+02
262           	3.077327e+02
263           	3.077387e+02
264           	3.077447e+02
265           	3.077506e+02
266           	3.077566e+02
267           	3.077625e+02
268           	3.077684e+02
269           	3.077743e+02
270           	3.077801e+02
271           	3.077860e+02
272           	3.077918e+02
273           	3.077975e+02
274           	3.078033e+02
275           	3.078090e+02
276           	3.078147e+02
277           	3.078204e+02
278           	3.078261e+02
279           	3.078318e+02
280           	3.078374e+02
281           	3.078430e+02
282           	3.078486e+02
283           	3.078542e+02
284           	3.078597e+02
285           	3.078653e+02
286           	3.078708e+02
287           	3.078763e+02
288           	3.078818e+02
289           	3.078872e+02
290           	3.078927e+02
291           	3.078981e+02
292           	3.079035e+02
293           	3.079088e+02
294           	3.079142e+02
295           	3.079195e+02
296           	3.079249e+02
297           	3.079302e+02
298           	3.079354e+02
299           	3.079407e+02
300           	3.079459e+02
301           	3.079512e+02
302           	3.079564e+02
303           	3.079616e+02
304           	3.079667e+02
305           	3.079719e+02
306           	3.079770e+02
307           	3.079822e+02
308           	3.079873e+02
309           	3.079924e+02
310           	3.079974e+02
311           	3.080025e+02
312           	3.080075e+02
313           	3.080125e+02
314           	3.080175e+02
315           	3.080225e+02
316           	3.080275e+02
317           	3.080324e+02
318           	3.080374e+02
319           	3.080423e+02
320           	3.080472e+02
321           	3.080521e+02
322           	3.080569e+02
323           	3.080618e+02
324           	3.080666e+02
325           	3.080715e+02
326           	3.080763e+02
327           	3.080811e+02
328           	3.080858e+02
329           	3.080906e+02
330           	3.080954e+02
331           	3.081001e+02
332           	3.081048e+02
333           	3.081095e+02
334           	3.081142e+02
335           	3.081189e+02
336           	3.081236e+02
337           	3.081282e+02
338           	3.081329e+02
339           	3.081375e+02
340           	3.081421e+02
341           	3.081467e+02
342           	3.081512e+02
343           	3.081558e+02
344           	3.081604e+02
345           	3.081649e+02
346           	3.081694e+02
347           	3.081739e+02
348           	3.081784e+02
349           	3.081829e+02
350           	3.081873e+02
351           	3.081918e+02
352           	3.081962e+02
353           	3.082006e+02
354           	3.082050e+02
355           	3.082094e+02
356           	3.082138e+02
357           	3.082182e+02
358           	3.082225e+02
359           	3.082269e+02
360           	3.082312e+02
361           	3.082355e+02
362           	3.082398e+02
363           	3.082441e+02
364           	3.082484e+02
365           	3.082526e+02
366           	3.082569e+02
367           	3.082611e+02
368           	3.082653e+02
369           	3.082695e+02
370           	3.082737e+02
371           	3.082779e+02
372           	3.082820e+02
373           	3.082862e+02
374           	3.082903e+02
375           	3.082944e+02
376           	3.082985e+02
377           	3.083026e+02
378           	3.083067e+02
379           	3.083108e+02
380           	3.083148e+02
381           	3.083189e+02
382           	3.083229e+02
383           	3.083269e+02
384           	3.083309e+02
385           	3.083349e+02
386           	3.083389e+02
387           	3.083429e+02
388           	3.083468e+02
389           	3.083507e+02
390           	3.083547e+02
391           	3.083586e+02
392           	3.083625e+02
393           	3.083664e+02
394           	3.083702e+02
395           	3.083741e+02
396           	3.083779e+02
397           	3.083818e+02
398           	3.083856e+02
399           	3.083894e+02
400           	3.083932e+02
401           	3.083969e+02
402           	3.084007e+02
403           	3.084045e+02
404           	3.084082e+02
405           	3.084119e+02
406           	3.084157e+02
407           	3.084194e+02
408           	3.084230e+02
409           	3.084267e+02
410           	3.084304e+02
411           	3.084340e+02
412           	3.084377e+02
413           	3.084413e+02
414           	3.084449e+02
415           	3.084485e+02
416           	3.084521e+02
417           	3.084557e+02
418           	3.084593e+02
419           	3.084628e+02
420           	3.084664e+02
421           	3.084699e+02
422           	3.084734e+02
423           	3.084769e+02
424           	3.084804e+02
425           	3.084839e+02
426           	3.084874e+02
427           	3.084908e+02
428           	3.084943e+02
429           	3.084977e+02
430           	3.085012e+02
431           	3.085046e+02
432           	3.085080e+02
433           	3.085114e+02
434           	3.085148e+02
435           	3.085181e+02
436           	3.085215e+02
437           	3.085248e+02
438           	3.085282e+02
439           	3.085315e+02
440           	3.085348e+02
441           	3.085381e+02
442           	3.085414e+02
443           	3.085447e+02
444           	3.085479e+02
445           	3.085512e+02
446           	3.085544e+02
447           	3.085577e+02
448           	3.085609e+02
449           	3.085641e+02
450           	3.085673e+02
451           	3.085705e+02
452           	3.085737e+02
453           	3.085768e+02
454           	3.085800e+02
455           	3.085831e+02
456           	3.085863e+02
457           	3.085894e+02
458           	3.085925e+02
459           	3.085956e+02
460           	3.085987e+02
461           	3.086018e+02
462           	3.086048e+02
463           	3.086079e+02
464           	3.086109e+02
465           	3.086140e+02
466           	3.086170e+02
467           	3.086200e+02
468           	3.086230e+02
469           	3.086260e+02
470           	3.086289e+02
471           	3.086319e+02
472           	3.086349e+02
473           	3.086378e+02
474           	3.086407e+02
475           	3.086436e+02
476           	3.086465e+02
477           	3.086494e+02
478           	3.086523e+02
479           	3.086552e+02
480           	3.086581e+02
481           	3.086609e+02
482           	3.086638e+02
483           	3.086666e+02
484           	3.086694e+02
485           	3.086722e+02
486           	3.086750e+02
487           	3.086778e+02
488           	3.086806e+02
489           	3.086834e+02
490           	3.086861e+02
491           	3.086889e+02
492           	3.086916e+02
493           	3.086943e+02
494           	3.086971e+02
495           	3.086998e+02
496           	3.087025e+02
497           	3.087052e+02
498           	3.087078e+02
499           	3.087105e+02
500           	3.087132e+02
501           	3.087158e+02
502           	3.087185e+02
503           	3.087211e+02
504           	3.087237e+02
505           	3.087263e+02
506           	3.087289e+02
507           	3.087315e+02
508           	3.087341e+02
509           	3.087367e+02
510           	3.087392e+02
511           	3.087418e+02
512           	3.087443e+02
513           	3.087469e+02
514           	3.087494e+02
515           	3.087519e+02
516           	3.087544e+02
517           	3.087569e+02
518           	3.087594e+02
519           	3.087619e+02
520           	3.087643e+02
521           	3.087668e+02
522           	3.087692e+02
523           	3.087717e+02
524           	3.087741e+02
525           	3.087765e+02
526           	3.087789e+02
527           	3.087813e+02
528           	3.087837e+02
529           	3.087861e+02
530           	3.087885e+02
531           	3.087908e+02
532           	3.087932e+02
533           	3.087955e+02
534           	3.087979e+02
535           	3.088002e+02
536           	3.088025e+02
537           	3.088048e+02
538           	3.088071e+02
539           	3.088094e+02
540           	3.088117e+02
541           	3.088139e+02
542           	3.088162e+02
543           	3.088185e+02
544           	3.088207e+02
545           	3.088229e+02
546           	3.088252e+02
547           	3.088274e+02
548           	3.088296e+02
549           	3.088318e+02
550           	3.088340e+02
551           	3.088362e+02
552           	3.088384e+02
553           	3.088405e+02
554           	3.088427e+02
555           	3.088448e+02
556           	3.088470e+02
557           	3.088491e+02
558           	3.088513e+02
559           	3.088534e+02
560           	3.088555e+02
561           	3.088576e+02
562           	3.088597e+02
563           	3.088618e+02
564           	3.088638e+02
565           	3.088659e+02
566           	3.088680e+02
567           	3.088700e+02
568           	3.088721e+02
569           	3.088741e+02
570           	3.088761e+02
571           	3.088781e+02
572           	3.088802e+02
573           	3.088822e+02
574           	3.088842e+02
575           	3.088861e+02
576           	3.088881e+02
577           	3.088901e+02
578           	3.088921e+02
579           	3.088940e+02
580           	3.088960e+02
581           	3.088979e+02
582           	3.088998e+02
583           	3.089018e+02
584           	3.089037e+02
585           	3.089056e+02
586           	3.089075e+02
587           	3.089094e+02
588           	3.089113e+02
589           	3.089131e+02
590           	3.089150e+02
591           	3.089169e+02
592           	3.089187e+02
593           	3.089206e+02
594           	3.089224e+02
595           	3.089242e+02
596           	3.089261e+02
597           	3.089279e+02
598           	3.089297e+02
599           	3.089315e+02
600           	3.089333e+02
601           	3.089351e+02
602           	3.089369e+02
603           	3.089386e+02
604           	3.089404e+02
605           	3.089422e+02
606           	3.089439e+02
607           	3.089456e+02
608           	3.089474e+02
609           	3.089491e+02
610           	3.089508e+02
611           	3.089526e+02
612           	3.089543e+02
613           	3.089560e+02
614           	3.089577e+02
615           	3.089594e+02
616           	3.089610e+02
617           	3.089627e+02
618           	3.089644e+02
619           	3.089660e+02
620           	3.089677e+02
621           	3.089693e+02
622           	3.089710e+02
623           	3.089726e+02
624           	3.089742e+02
625           	3.089759e+02
626           	3.089775e+02
627           	3.089791e+02
628           	3.089807e+02
629           	3.089823e+02
630           	3.089838e+02
631           	3.089854e+02
632           	3.089870e+02
633           	3.089886e+02
634           	3.089901e+02
635           	3.089917e+02
636           	3.089932e+02
637           	3.089947e+02
638           	3.089963e+02
639           	3.089978e+02
640           	3.089993e+02
641           	3.090008e+02
642           	3.090023e+02
643           	3.090038e+02
644           	3.090053e+02
645           	3.090068e+02
646           	3.090082e+02
647           	3.090097e+02
648           	3.090112e+02
649           	3.090126e+02
650           	3.090141e+02
651           	3.090155e+02
652           	3.090169e+02
653           	3.090184e+02
654           	3.090198e+02
655           	3.090212e+02
656           	3.090226e+02
657           	3.090240e+02
658           	3.090254e+02
659           	3.090267e+02
660           	3.090281e+02
661           	3.090295e+02
662           	3.090308e+02
663           	3.090322e+02
664           	3.090335e+02
665           	3.090349e+02
666           	3.090362e+02
667           	3.090375e+02
668           	3.090389e+02
669           	3.090402e+02
670           	3.090415e+02
671           	3.090428e+02
672           	3.090441e+02
673           	3.090454e+02
674           	3.090466e+02
675           	3.090479e+02
676           	3.090492e+02
677           	3.090504e+02
678           	3.090517e+02
679           	3.090529e+02
680           	3.090542e+02
681           	3.090554e+02
682           	3.090567e+02
683           	3.090579e+02
684           	3.090591e+02
685           	3.090603e+02
686           	3.090615e+02
687           	3.090627e+02
688           	3.090639e+02
689           	3.090651e+02
690           	3.090663e+02
691           	3.090674e+02
692           	3.090686e+02
693           	3.090698e+02
694           	3.090709e+02
695           	3.090721e+02
696           	3.090732e+02
697           	3.090744e+02
698           	3.090755e+02
699           	3.090766e+02
700           	3.090778e+02
701           	3.090789e+02
702           	3.090800e+02
703           	3.090811e+02
704           	3.090822e+02
705           	3.090833e+02
706           	3.090844e+02
707           	3.090855e+02
708           	3.090866e+02
709           	3.090876e+02
710           	3.090887e+02
711           	3.090898e+02
712           	3.090908e+02
713           	3.090919e+02
714           	3.090929e+02
715           	3.090940e+02
716           	3.090950e+02
717           	3.090961e+02
718           	3.090971e+02
719           	3.090981e+02
720           	3.090991e+02
721           	3.091001e+02
722           	3.091011e+02
723           	3.091021e+02
724           	3.091031e+02
725           	3.091041e+02
726           	3.091051e+02
727           	3.091061e+02
728           	3.091071e+02
729           	3.091080e+02
730           	3.091090e+02
731           	3.091100e+02
732           	3.091109e+02
733           	3.091119e+02
734           	3.091128e+02
735           	3.091138e+02
736           	3.091147e+02
737           	3.091157e+02
738           	3.091166e+02
739           	3.091175e+02
740           	3.091184e+02
741           	3.091194e+02
742           	3.091203e+02
743           	3.091212e+02
744           	3.091221e+02
745           	3.091230e+02
746           	3.091239e+02
747           	3.091248e+02
748           	3.091257e+02
749           	3.091266e+02
750           	3.091275e+02
751           	3.091283e+02
752           	3.091292e+02
753           	3.091301e+02
754           	3.091310e+02
755           	3.091318e+02
756           	3.091327e+02
757           	3.091335e+02
758           	3.091344e+02
759           	3.091352e+02
760           	3.091361e+02
761           	3.091369e+02
762           	3.091378e+02
763           	3.091386e+02
764           	3.091395e+02
765           	3.091403e+02
766           	3.091411e+02
767           	3.091419e+02
768           	3.091428e+02
769           	3.091436e+02
770           	3.091444e+02
771           	3.091452e+02
772           	3.091460e+02
773           	3.091468e+02
774           	3.091476e+02
775           	3.091484e+02
776           	3.091492e+02
777           	3.091500e+02
778           	3.091508e+02
779           	3.091516e+02
780           	3.091524e+02
781           	3.091532e+02
782           	3.091540e+02
783           	3.091547e+02
784           	3.091555e+02
785           	3.091563e+02
786           	3.091571e+02
787           	3.091578e+02
788           	3.091586e+02
789           	3.091593e+02
790           	3.091601e+02
791           	3.091608e+02
792           	3.091616e+02
793           	3.091623e+02
794           	3.091631e+02
795           	3.091638e+02
796           	3.091645e+02
797           	3.091653e+02
798           	3.091660e+02
799           	3.091667e+02
800           	3.091674e+02
801           	3.091681e+02
802           	3.091688e+02
803           	3.091695e+02
804           	3.091702e+02
805           	3.091709e+02
806           	3.091716e+02
807           	3.091723e+02
808           	3.091730e+02
809           	3.091737e+02
810           	3.091743e+02
811           	3.091750e+02
812           	3.091756e+02
813           	3.091763e+02
814           	3.091770e+02
815           	3.091776e+02
816           	3.091782e+02
817           	3.091789e+02
818           	3.091795e+02
819           	3.091801e+02
820           	3.091807e+02
821           	3.091814e+02
822           	3.091820e+02
823           	3.091826e+02
824           	3.091832e+02
825           	3.091838e+02
826           	3.091844e+02
827           	3.091850e+02
828           	3.091856e+02
829           	3.091861e+02
830           	3.091867e+02
831           	3.091873e+02
832           	3.091879e+02
833           	3.091884e+02
834           	3.091890e+02
835           	3.091896e+02
836           	3.091901e+02
837           	3.091907e+02
838           	3.091912e+02
839           	3.091918e+02
840           	3.091923e+02
841           	3.091929e+02
842           	3.091934e+02
843           	3.091939e+02
844           	3.091945e+02
845           	3.091950e+02
846           	3.091955e+02
847           	3.091961e+02
848           	3.091966e+02
849           	3.091971e+02
850           	3.091976e+02
851           	3.091981e+02
852           	3.091987e+02
853           	3.091992e+02
854           	3.091997e+02
855           	3.092002e+02
856           	3.092007e+02
857           	3.092012e+02
858           	3.092017e+02
859           	3.092022e+02
860           	3.092026e+02
861           	3.092031e+02
862           	3.092036e+02
863           	3.092041e+02
864           	3.092045e+02
865           	3.092050e+02
866           	3.092055e+02
867           	3.092059e+02
868           	3.092064e+02
869           	3.092069e+02
870           	3.092073e+02
871           	3.092078e+02
872           	3.092082e+02
873           	3.092087e+02
874           	3.092091e+02
875           	3.092096e+02
876           	3.092100e+02
877           	3.092105e+02
878           	3.092109e+02
879           	3.092114e+02
880           	3.092118e+02
881           	3.092123e+02
882           	3.092127e+02
883           	3.092131e+02
884           	3.092136e+02
885           	3.092140e+02
886           	3.092144e+02
887           	3.092149e+02
888           	3.092153e+02
889           	3.092157e+02
890           	3.092162e+02
891           	3.092166e+02
892           	3.092170e+02
893           	3.092175e+02
894           	3.092179e+02
895           	3.092183e+02
896           	3.092187e+02
897           	3.092192e+02
898           	3.092196e+02
899           	3.092200e+02
900           	3.092204e+02
901           	3.092208e+02
902           	3.092212e+02
903           	3.092217e+02
904           	3.092221e+02
905           	3.092225e+02
906           	3.092229e+02
907           	3.092233e+02
908           	3.092237e+02
909           	3.092241e+02
910           	3.092245e+02
911           	3.092249e+02
912           	3.092253e+02
913           	3.092256e+02
914           	3.092260e+02
915           	3.092264e+02
916           	3.092268e+02
917           	3.092271e+02
918           	3.092275e+02
919           	3.092279e+02
920           	3.092282e+02
921           	3.092286e+02
922           	3.092289e+02
923           	3.092292e+02
924           	3.092296e+02
925           	3.092299e+02
926           	3.092302e+02
927           	3.092305e+02
928           	3.092308e+02
929           	3.092312e+02
930           	3.092315e+02
931           	3.092318e+02
932           	3.092320e+02
933           	3.092323e+02
934           	3.092326e+02
935           	3.092329e+02
936           	3.092332e+02
937           	3.092334e+02
938           	3.092337e+02
939           	3.092339e+02
940           	3.092342e+02
941           	3.092344e+02
942           	3.092347e+02
943           	3.092349e+02
944           	3.092352e+02
945           	3.092354e+02
946           	3.092356e+02
947           	3.092358e+02
948           	3.092360e+02
949           	3.092363e+02
950           	3.092365e+02
951           	3.092367e+02
952           	3.092369e+02
953           	3.092370e+02
954           	3.092372e+02
955           	3.092374e+02
956           	3.092376e+02
957           	3.092378e+02
958           	3.092379e+02
959           	3.092381e+02
960           	3.092383e+02
961           	3.092384e+02
962           	3.092386e+02
963           	3.092388e+02
964           	3.092389e+02
965           	3.092391e+02
966           	3.092392e+02
967           	3.092394e+02
968           	3.092395e+02
969           	3.092397e+02
970           	3.092398e+02
971           	3.092400e+02
972           	3.092401e+02
973           	3.092403e+02
974           	3.092404e+02
975           	3.092406e+02
976           	3.092407e+02
977           	3.092409e+02
978           	3.092410e+02
979           	3.092412e+02
980           	3.092414e+02
981           	3.092415e+02
982           	3.092417e+02
983           	3.092418e+02
984           	3.092420e+02
985           	3.092421e+02
986           	3.092423e+02
987           	3.092425e+02
988           	3.092426e+02
989           	3.092428e+02
990           	3.092429e+02
991           	3.092431e+02
992           	3.092433e+02
993           	3.092434e+02
994           	3.092436e+02
995           	3.092438e+02
996           	3.092439e+02
997           	3.092441e+02
998           	3.092443e+02
999           	3.092444e+02
1000          	3.092446e+02
1001          	3.092448e+02
1002          	3.092450e+02
1003          	3.092452e+02
1004          	3.092453e+02
1005          	3.092455e+02
1006          	3.092457e+02
1007          	3.092459e+02
1008          	3.092461e+02
1009          	3.092463e+02
1010          	3.092465e+02
1011          	3.092466e+02
1012          	3.092468e+02
1013          	3.092470e+02
1014          	3.092472e+02
1015          	3.092474e+02
1016          	3.092476e+02
1017          	3.092478e+02
1018          	3.092480e+02
1019          	3.092482e+02
1020          	3.092485e+02
1021          	3.092487e+02
1022          	3.092489e+02
1023          	3.092491e+02
1024          	3.092493e+02
1025          	3.092495e+02
1026          	3.092497e+02
1027          	3.092500e+02
1028          	3.092502e+02
1029          	3.092504e+02
1030          	3.092506e+02
1031          	3.092509e+02
1032          	3.092511e+02
1033          	3.092513e+02
1034          	3.092516e+02
1035          	3.092518e+02
1036          	3.092520e+02
1037          	3.092523e+02
1038          	3.092525e+02
1039          	3.092528e+02
1040          	3.092530e+02
1041          	3.092533e+02
1042          	3.092535e+02
1043          	3.092538e+02
1044          	3.092540e+02
1045          	3.092543e+02
1046          	3.092545e+02
1047          	3.092548e+02
1048          	3.092550e+02
1049          	3.092553e+02
1050          	3.092556e+02
1051          	3.092558e+02
1052          	3.092561e+02
1053          	3.092564e+02
1054          	3.092567e+02
1055          	3.092569e+02
1056          	3.092572e+02
1057          	3.092575e+02
1058          	3.092577e+02
1059          	3.092580e+02
1060          	3.092583e+02
1061          	3.092586e+02
1062          	3.092588e+02
1063          	3.092591e+02
1064          	3.092594e+02
1065          	3.092597e+02
1066          	3.092600e+02
1067          	3.092602e+02