# Region      : all 
# Cells       : 298902
# Volume      : 2.872800e-05
# Time        	max(T)
1             	2.979986e+02
2             	2.975415e+02
3             	2.977593e+02
4             	2.978641e+02
5             	2.980743e+02
6             	2.982805e+02
7             	2.984813e+02
8             	2.986776e+02
9             	2.988695e+02
10            	2.990562e+02
11            	2.992377e+02
12            	2.994143e+02
13            	2.995862e+02
14            	2.997536e+02
15            	2.999168e+02
16            	3.000756e+02
17            	3.002302e+02
18            	3.003808e+02
19            	3.005275e+02
20            	3.006705e+02
21            	3.008100e+02
22            	3.009460e+02
23            	3.010786e+02
24            	3.012079e+02
25            	3.013339e+02
26            	3.014569e+02
27            	3.015769e+02
28            	3.016940e+02
29            	3.018082e+02
30            	3.019198e+02
31            	3.020287e+02
32            	3.021351e+02
33            	3.022391e+02
34            	3.023407e+02
35            	3.024401e+02
36            	3.025371e+02
37            	3.026320e+02
38            	3.027248e+02
39            	3.028156e+02
40            	3.029043e+02
41            	3.029911e+02
42            	3.030761e+02
43            	3.031592e+02
44            	3.032406e+02
45            	3.033202e+02
46            	3.033982e+02
47            	3.034745e+02
48            	3.035493e+02
49            	3.036226e+02
50            	3.036943e+02
51            	3.037647e+02
52            	3.038336e+02
53            	3.039011e+02
54            	3.039673e+02
55            	3.040322e+02
56            	3.040959e+02
57            	3.041583e+02
58            	3.042195e+02
59            	3.042795e+02
60            	3.043383e+02
61            	3.043961e+02
62            	3.044527e+02
63            	3.045083e+02
64            	3.045629e+02
65            	3.046165e+02
66            	3.046690e+02
67            	3.047206e+02
68            	3.047712e+02
69            	3.048208e+02
70            	3.048695e+02
71            	3.049174e+02
72            	3.049643e+02
73            	3.050104e+02
74            	3.050556e+02
75            	3.051000e+02
76            	3.051436e+02
77            	3.051863e+02
78            	3.052283e+02
79            	3.052696e+02
80            	3.053101e+02
81            	3.053499e+02
82            	3.053890e+02
83            	3.054274e+02
84            	3.054651e+02
85            	3.055022e+02
86            	3.055386e+02
87            	3.055744e+02
88            	3.056096e+02
89            	3.056442e+02
90            	3.056782e+02
91            	3.057116e+02
92            	3.057445e+02
93            	3.057769e+02
94            	3.058087e+02
95            	3.058400e+02
96            	3.058708e+02
97            	3.059011e+02
98            	3.059309e+02
99            	3.059602e+02
100           	3.059891e+02
101           	3.060176e+02
102           	3.060455e+02
103           	3.060731e+02
104           	3.061002e+02
105           	3.061269e+02
106           	3.061532e+02
107           	3.061791e+02
108           	3.062047e+02
109           	3.062298e+02
110           	3.062545e+02
111           	3.062789e+02
112           	3.063030e+02
113           	3.063267e+02
114           	3.063500e+02
115           	3.063730e+02
116           	3.063956e+02
117           	3.064180e+02
118           	3.064400e+02
119           	3.064617e+02
120           	3.064831e+02
121           	3.065042e+02
122           	3.065249e+02
123           	3.065454e+02
124           	3.065657e+02
125           	3.065856e+02
126           	3.066052e+02
127           	3.066246e+02
128           	3.066438e+02
129           	3.066626e+02
130           	3.066812e+02
131           	3.066996e+02
132           	3.067177e+02
133           	3.067355e+02
134           	3.067532e+02
135           	3.067706e+02
136           	3.067877e+02
137           	3.068047e+02
138           	3.068214e+02
139           	3.068379e+02
140           	3.068542e+02
141           	3.068703e+02
142           	3.068862e+02
143           	3.069019e+02
144           	3.069175e+02
145           	3.069328e+02
146           	3.069479e+02
147           	3.069628e+02
148           	3.069776e+02
149           	3.069922e+02
150           	3.070066e+02
151           	3.070208e+02
152           	3.070349e+02
153           	3.070488e+02
154           	3.070626e+02
155           	3.070761e+02
156           	3.070896e+02
157           	3.071029e+02
158           	3.071160e+02
159           	3.071290e+02
160           	3.071418e+02
161           	3.071545e+02
162           	3.071671e+02
163           	3.071795e+02
164           	3.071918e+02
165           	3.072039e+02
166           	3.072159e+02
167           	3.072278e+02
168           	3.072396e+02
169           	3.072512e+02
170           	3.072628e+02
171           	3.072742e+02
172           	3.072854e+02
173           	3.072966e+02
174           	3.073077e+02
175           	3.073186e+02
176           	3.073295e+02
177           	3.073402e+02
178           	3.073509e+02
179           	3.073614e+02
180           	3.073718e+02
181           	3.073822e+02
182           	3.073924e+02
183           	3.074026e+02
184           	3.074126e+02
185           	3.074226e+02
186           	3.074324e+02
187           	3.074422e+02
188           	3.074519e+02
189           	3.074616e+02
190           	3.074711e+02
191           	3.074806e+02
192           	3.074899e+02
193           	3.074992e+02
194           	3.075085e+02
195           	3.075176e+02
196           	3.075267e+02
197           	3.075357e+02
198           	3.075446e+02
199           	3.075535e+02
200           	3.075623e+02
201           	3.075710e+02
202           	3.075796e+02
203           	3.075882e+02
204           	3.075968e+02
205           	3.076052e+02
206           	3.076136e+02
207           	3.076219e+02
208           	3.076302e+02
209           	3.076384e+02
210           	3.076466e+02
211           	3.076547e+02
212           	3.076628e+02
213           	3.076707e+02
214           	3.076787e+02
215           	3.076866e+02
216           	3.076944e+02
217           	3.077022e+02
218           	3.077099e+02
219           	3.077176e+02
220           	3.077252e+02
221           	3.077328e+02
222           	3.077404e+02
223           	3.077479e+02
224           	3.077553e+02
225           	3.077627e+02
226           	3.077701e+02
227           	3.077774e+02
228           	3.077846e+02
229           	3.077919e+02
230           	3.077991e+02
231           	3.078062e+02
232           	3.078133e+02
233           	3.078203e+02
234           	3.078273e+02
235           	3.078343e+02
236           	3.078412e+02
237           	3.078481e+02
238           	3.078550e+02
239           	3.078618e+02
240           	3.078685e+02
241           	3.078753e+02
242           	3.078820e+02
243           	3.078886e+02
244           	3.078952e+02
245           	3.079018e+02
246           	3.079084e+02
247           	3.079149e+02
248           	3.079214e+02
249           	3.079278e+02
250           	3.079342e+02
251           	3.079406e+02
252           	3.079470e+02
253           	3.079533e+02
254           	3.079596e+02
255           	3.079658e+02
256           	3.079721e+02
257           	3.079783e+02
258           	3.079844e+02
259           	3.079906e+02
260           	3.079967e+02
261           	3.080028e+02
262           	3.080088e+02
263           	3.080149e+02
264           	3.080209e+02
265           	3.080268e+02
266           	3.080328e+02
267           	3.080387e+02
268           	3.080446e+02
269           	3.080505e+02
270           	3.080564e+02
271           	3.080622e+02
272           	3.080680e+02
273           	3.080738e+02
274           	3.080796e+02
275           	3.080853e+02
276           	3.080911e+02
277           	3.080968e+02
278           	3.081024e+02
279           	3.081081e+02
280           	3.081138e+02
281           	3.081194e+02
282           	3.081250e+02
283           	3.081306e+02
284           	3.081361e+02
285           	3.081417e+02
286           	3.081472e+02
287           	3.081527e+02
288           	3.081582e+02
289           	3.081636e+02
290           	3.081691e+02
291           	3.081745e+02
292           	3.081799e+02
293           	3.081853e+02
294           	3.081907e+02
295           	3.081960e+02
296           	3.082013e+02
297           	3.082066e+02
298           	3.082119e+02
299           	3.082172e+02
300           	3.082224e+02
301           	3.082277e+02
302           	3.082329e+02
303           	3.082381e+02
304           	3.082433e+02
305           	3.082484e+02
306           	3.082536e+02
307           	3.082587e+02
308           	3.082638e+02
309           	3.082689e+02
310           	3.082740e+02
311           	3.082791e+02
312           	3.082841e+02
313           	3.082891e+02
314           	3.082941e+02
315           	3.082991e+02
316           	3.083041e+02
317           	3.083091e+02
318           	3.083140e+02
319           	3.083189e+02
320           	3.083238e+02
321           	3.083287e+02
322           	3.083336e+02
323           	3.083385e+02
324           	3.083433e+02
325           	3.083481e+02
326           	3.083530e+02
327           	3.083578e+02
328           	3.083626e+02
329           	3.083673e+02
330           	3.083721e+02
331           	3.083768e+02
332           	3.083816e+02
333           	3.083863e+02
334           	3.083910e+02
335           	3.083957e+02
336           	3.084003e+02
337           	3.084050e+02
338           	3.084096e+02
339           	3.084143e+02
340           	3.084189e+02
341           	3.084235e+02
342           	3.084280e+02
343           	3.084326e+02
344           	3.084372e+02
345           	3.084417e+02
346           	3.084462e+02
347           	3.084507e+02
348           	3.084552e+02
349           	3.084597e+02
350           	3.084642e+02
351           	3.084686e+02
352           	3.084731e+02
353           	3.084775e+02
354           	3.084819e+02
355           	3.084863e+02
356           	3.084907e+02
357           	3.084951e+02
358           	3.084994e+02
359           	3.085038e+02
360           	3.085081e+02
361           	3.085124e+02
362           	3.085167e+02
363           	3.085210e+02
364           	3.085253e+02
365           	3.085295e+02
366           	3.085338e+02
367           	3.085380e+02
368           	3.085422e+02
369           	3.085464e+02
370           	3.085506e+02
371           	3.085548e+02
372           	3.085590e+02
373           	3.085631e+02
374           	3.085673e+02
375           	3.085714e+02
376           	3.085755e+02
377           	3.085796e+02
378           	3.085837e+02
379           	3.085878e+02
380           	3.085918e+02
381           	3.085959e+02
382           	3.085999e+02
383           	3.086039e+02
384           	3.086079e+02
385           	3.086119e+02
386           	3.086159e+02
387           	3.086199e+02
388           	3.086238e+02
389           	3.086278e+02
390           	3.086317e+02
391           	3.086356e+02
392           	3.086395e+02
393           	3.086434e+02
394           	3.086473e+02
395           	3.086511e+02
396           	3.086550e+02
397           	3.086588e+02
398           	3.086627e+02
399           	3.086665e+02
400           	3.086703e+02
401           	3.086740e+02
402           	3.086778e+02
403           	3.086816e+02
404           	3.086853e+02
405           	3.086890e+02
406           	3.086928e+02
407           	3.086965e+02
408           	3.087002e+02
409           	3.087038e+02
410           	3.087075e+02
411           	3.087112e+02
412           	3.087148e+02
413           	3.087185e+02
414           	3.087221e+02
415           	3.087257e+02
416           	3.087293e+02
417           	3.087329e+02
418           	3.087364e+02
419           	3.087400e+02
420           	3.087435e+02
421           	3.087471e+02
422           	3.087506e+02
423           	3.087541e+02
424           	3.087576e+02
425           	3.087611e+02
426           	3.087646e+02
427           	3.087680e+02
428           	3.087715e+02
429           	3.087749e+02
430           	3.087784e+02
431           	3.087818e+02
432           	3.087852e+02
433           	3.087886e+02
434           	3.087920e+02
435           	3.087954e+02
436           	3.087987e+02
437           	3.088021e+02
438           	3.088054e+02
439           	3.088087e+02
440           	3.088121e+02
441           	3.088154e+02
442           	3.088187e+02
443           	3.088219e+02
444           	3.088252e+02
445           	3.088285e+02
446           	3.088317e+02
447           	3.088350e+02
448           	3.088382e+02
449           	3.088414e+02
450           	3.088446e+02
451           	3.088478e+02
452           	3.088510e+02
453           	3.088541e+02
454           	3.088573e+02
455           	3.088604e+02
456           	3.088636e+02
457           	3.088667e+02
458           	3.088698e+02
459           	3.088729e+02
460           	3.088760e+02
461           	3.088791e+02
462           	3.088821e+02
463           	3.088852e+02
464           	3.088883e+02
465           	3.088913e+02
466           	3.088943e+02
467           	3.088973e+02
468           	3.089003e+02
469           	3.089033e+02
470           	3.089063e+02
471           	3.089093e+02
472           	3.089122e+02
473           	3.089152e+02
474           	3.089181e+02
475           	3.089210e+02
476           	3.089239e+02
477           	3.089268e+02
478           	3.089297e+02
479           	3.089326e+02
480           	3.089354e+02
481           	3.089383e+02
482           	3.089411e+02
483           	3.089440e+02
484           	3.089468e+02
485           	3.089496e+02
486           	3.089524e+02
487           	3.089552e+02
488           	3.089580e+02
489           	3.089608e+02
490           	3.089635e+02
491           	3.089663e+02
492           	3.089690e+02
493           	3.089718e+02
494           	3.089745e+02
495           	3.089772e+02
496           	3.089799e+02
497           	3.089826e+02
498           	3.089853e+02
499           	3.089880e+02
500           	3.089906e+02
501           	3.089933e+02
502           	3.089959e+02
503           	3.089985e+02
504           	3.090012e+02
505           	3.090038e+02
506           	3.090064e+02
507           	3.090090e+02
508           	3.090116e+02
509           	3.090141e+02
510           	3.090167e+02
511           	3.090192e+02
512           	3.090218e+02
513           	3.090243e+02
514           	3.090268e+02
515           	3.090294e+02
516           	3.090319e+02
517           	3.090344e+02
518           	3.090368e+02
519           	3.090393e+02
520           	3.090418e+02
521           	3.090443e+02
522           	3.090467e+02
523           	3.090491e+02
524           	3.090516e+02
525           	3.090540e+02
526           	3.090564e+02
527           	3.090588e+02
528           	3.090612e+02
529           	3.090636e+02
530           	3.090660e+02
531           	3.090683e+02
532           	3.090707e+02
533           	3.090730e+02
534           	3.090754e+02
535           	3.090777e+02
536           	3.090800e+02
537           	3.090823e+02
538           	3.090846e+02
539           	3.090869e+02
540           	3.090892e+02
541           	3.090915e+02
542           	3.090937e+02
543           	3.090960e+02
544           	3.090982e+02
545           	3.091005e+02
546           	3.091027e+02
547           	3.091049e+02
548           	3.091071e+02
549           	3.091093e+02
550           	3.091115e+02
551           	3.091137e+02
552           	3.091159e+02
553           	3.091181e+02
554           	3.091203e+02
555           	3.091224e+02
556           	3.091246e+02
557           	3.091267e+02
558           	3.091288e+02
559           	3.091309e+02
560           	3.091331e+02
561           	3.091352e+02
562           	3.091373e+02
563           	3.091393e+02
564           	3.091414e+02
565           	3.091435e+02
566           	3.091456e+02
567           	3.091476e+02
568           	3.091497e+02
569           	3.091517e+02
570           	3.091537e+02
571           	3.091557e+02
572           	3.091578e+02
573           	3.091598e+02
574           	3.091618e+02
575           	3.091637e+02
576           	3.091657e+02
577           	3.091677e+02
578           	3.091697e+02
579           	3.091716e+02
580           	3.091736e+02
581           	3.091755e+02
582           	3.091774e+02
583           	3.091794e+02
584           	3.091813e+02
585           	3.091832e+02
586           	3.091851e+02
587           	3.091870e+02
588           	3.091889e+02
589           	3.091908e+02
590           	3.091926e+02
591           	3.091945e+02
592           	3.091964e+02
593           	3.091982e+02
594           	3.092000e+02
595           	3.092019e+02
596           	3.092037e+02
597           	3.092055e+02
598           	3.092073e+02
599           	3.092091e+02
600           	3.092109e+02
601           	3.092127e+02
602           	3.092145e+02
603           	3.092163e+02
604           	3.092181e+02
605           	3.092198e+02
606           	3.092216e+02
607           	3.092233e+02
608           	3.092251e+02
609           	3.092268e+02
610           	3.092285e+02
611           	3.092302e+02
612           	3.092319e+02
613           	3.092337e+02
614           	3.092354e+02
615           	3.092370e+02
616           	3.092387e+02
617           	3.092404e+02
618           	3.092421e+02
619           	3.092437e+02
620           	3.092454e+02
621           	3.092470e+02
622           	3.092487e+02
623           	3.092503e+02
624           	3.092519e+02
625           	3.092536e+02
626           	3.092552e+02
627           	3.092568e+02
628           	3.092584e+02
629           	3.092600e+02
630           	3.092616e+02
631           	3.092631e+02
632           	3.092647e+02
633           	3.092663e+02
634           	3.092678e+02
635           	3.092694e+02
636           	3.092709e+02
637           	3.092725e+02
638           	3.092740e+02
639           	3.092755e+02
640           	3.092770e+02
641           	3.092786e+02
642           	3.092801e+02
643           	3.092815e+02
644           	3.092830e+02
645           	3.092845e+02
646           	3.092860e+02
647           	3.092875e+02
648           	3.092889e+02
649           	3.092904e+02
650           	3.092918e+02
651           	3.092932e+02
652           	3.092947e+02
653           	3.092961e+02
654           	3.092975e+02
655           	3.092989e+02
656           	3.093003e+02
657           	3.093017e+02
658           	3.093031e+02
659           	3.093045e+02
660           	3.093059e+02
661           	3.093072e+02
662           	3.093086e+02
663           	3.093100e+02
664           	3.093113e+02
665           	3.093127e+02
666           	3.093140e+02
667           	3.093153e+02
668           	3.093166e+02
669           	3.093179e+02
670           	3.093193e+02
671           	3.093206e+02
672           	3.093219e+02
673           	3.093231e+02
674           	3.093244e+02
675           	3.093257e+02
676           	3.093270e+02
677           	3.093282e+02
678           	3.093295e+02
679           	3.093307e+02
680           	3.093320e+02
681           	3.093332e+02
682           	3.093344e+02
683           	3.093357e+02
684           	3.093369e+02
685           	3.093381e+02
686           	3.093393e+02
687           	3.093405e+02
688           	3.093417e+02
689           	3.093429e+02
690           	3.093441e+02
691           	3.093452e+02
692           	3.093464e+02
693           	3.093476e+02
694           	3.093487e+02
695           	3.093499e+02
696           	3.093510e+02
697           	3.093522e+02
698           	3.093533e+02
699           	3.093544e+02
700           	3.093556e+02
701           	3.093567e+02
702           	3.093578e+02
703           	3.093589e+02
704           	3.093600e+02
705           	3.093611e+02
706           	3.093622e+02
707           	3.093633e+02
708           	3.093644e+02
709           	3.093655e+02
710           	3.093665e+02
711           	3.093676e+02
712           	3.093687e+02
713           	3.093697e+02
714           	3.093708e+02
715           	3.093718e+02
716           	3.093729e+02
717           	3.093739e+02
718           	3.093749e+02
719           	3.093760e+02
720           	3.093770e+02
721           	3.093780e+02
722           	3.093790e+02
723           	3.093800e+02
724           	3.093810e+02
725           	3.093820e+02
726           	3.093830e+02
727           	3.093840e+02
728           	3.093849e+02
729           	3.093859e+02
730           	3.093869e+02
731           	3.093878e+02
732           	3.093888e+02
733           	3.093897e+02
734           	3.093907e+02
735           	3.093916e+02
736           	3.093926e+02
737           	3.093935e+02
738           	3.093944e+02
739           	3.093954e+02
740           	3.093963e+02
741           	3.093972e+02
742           	3.093981e+02
743           	3.093990e+02
744           	3.094000e+02
745           	3.094009e+02
746           	3.094018e+02
747           	3.094027e+02
748           	3.094036e+02
749           	3.094044e+02
750           	3.094053e+02
751           	3.094062e+02
752           	3.094071e+02
753           	3.094080e+02
754           	3.094088e+02
755           	3.094097e+02
756           	3.094106e+02
757           	3.094114e+02
758           	3.094123e+02
759           	3.094131e+02
760           	3.094140e+02
761           	3.094148e+02
762           	3.094157e+02
763           	3.094165e+02
764           	3.094173e+02
765           	3.094182e+02
766           	3.094190e+02
767           	3.094198e+02
768           	3.094207e+02
769           	3.094215e+02
770           	3.094223e+02
771           	3.094231e+02
772           	3.094239e+02
773           	3.094247e+02
774           	3.094255e+02
775           	3.094263e+02
776           	3.094271e+02
777           	3.094279e+02
778           	3.094287e+02
779           	3.094295e+02
780           	3.094303e+02
781           	3.094311e+02
782           	3.094319e+02
783           	3.094326e+02
784           	3.094334e+02
785           	3.094342e+02
786           	3.094349e+02
787           	3.094357e+02
788           	3.094365e+02
789           	3.094372e+02
790           	3.094380e+02
791           	3.094387e+02
792           	3.094395e+02
793           	3.094402e+02
794           	3.094410e+02
795           	3.094417e+02
796           	3.094424e+02
797           	3.094432e+02
798           	3.094439e+02
799           	3.094446e+02
800           	3.094453e+02
801           	3.094460e+02
802           	3.094467e+02
803           	3.094474e+02
804           	3.094481e+02
805           	3.094488e+02
806           	3.094495e+02
807           	3.094502e+02
808           	3.094509e+02
809           	3.094516e+02
810           	3.094522e+02
811           	3.094529e+02
812           	3.094536e+02
813           	3.094542e+02
814           	3.094549e+02
815           	3.094555e+02
816           	3.094562e+02
817           	3.094568e+02
818           	3.094574e+02
819           	3.094581e+02
820           	3.094587e+02
821           	3.094593e+02
822           	3.094599e+02
823           	3.094605e+02
824           	3.094611e+02
825           	3.094617e+02
826           	3.094623e+02
827           	3.094629e+02
828           	3.094635e+02
829           	3.094641e+02
830           	3.094647e+02
831           	3.094652e+02
832           	3.094658e+02
833           	3.094664e+02
834           	3.094670e+02
835           	3.094675e+02
836           	3.094681e+02
837           	3.094686e+02
838           	3.094692e+02
839           	3.094697e+02
840           	3.094703e+02
841           	3.094708e+02
842           	3.094714e+02
843           	3.094719e+02
844           	3.094724e+02
845           	3.094730e+02
846           	3.094735e+02
847           	3.094740e+02
848           	3.094746e+02
849           	3.094751e+02
850           	3.094756e+02
851           	3.094761e+02
852           	3.094766e+02
853           	3.094771e+02
854           	3.094776e+02
855           	3.094781e+02
856           	3.094786e+02
857           	3.094791e+02
858           	3.094796e+02
859           	3.094801e+02
860           	3.094806e+02
861           	3.094811e+02
862           	3.094816e+02
863           	3.094820e+02
864           	3.094825e+02
865           	3.094830e+02
866           	3.094835e+02
867           	3.094839e+02
868           	3.094844e+02
869           	3.094849e+02
870           	3.094853e+02
871           	3.094858e+02
872           	3.094862e+02
873           	3.094867e+02
874           	3.094871e+02
875           	3.094876e+02
876           	3.094880e+02
877           	3.094885e+02
878           	3.094889e+02
879           	3.094894e+02
880           	3.094898e+02
881           	3.094902e+02
882           	3.094907e+02
883           	3.094911e+02
884           	3.094916e+02
885           	3.094920e+02
886           	3.094924e+02
887           	3.094929e+02
888           	3.094933e+02
889           	3.094937e+02
890           	3.094942e+02
891           	3.094946e+02
892           	3.094950e+02
893           	3.094954e+02
894           	3.094959e+02
895           	3.094963e+02
896           	3.094967e+02
897           	3.094971e+02
898           	3.094975e+02
899           	3.094980e+02
900           	3.094984e+02
901           	3.094988e+02
902           	3.094992e+02
903           	3.094996e+02
904           	3.095000e+02
905           	3.095005e+02
906           	3.095009e+02
907           	3.095013e+02
908           	3.095017e+02
909           	3.095021e+02
910           	3.095025e+02
911           	3.095028e+02
912           	3.095032e+02
913           	3.095036e+02
914           	3.095040e+02
915           	3.095044e+02
916           	3.095047e+02
917           	3.095051e+02
918           	3.095055e+02
919           	3.095058e+02
920           	3.095062e+02
921           	3.095065e+02
922           	3.095069e+02
923           	3.095072e+02
924           	3.095075e+02
925           	3.095079e+02
926           	3.095082e+02
927           	3.095085e+02
928           	3.095088e+02
929           	3.095091e+02
930           	3.095094e+02
931           	3.095097e+02
932           	3.095100e+02
933           	3.095103e+02
934           	3.095106e+02
935           	3.095109e+02
936           	3.095112e+02
937           	3.095114e+02
938           	3.095117e+02
939           	3.095119e+02
940           	3.095122e+02
941           	3.095125e+02
942           	3.095127e+02
943           	3.095129e+02
944           	3.095132e+02
945           	3.095134e+02
946           	3.095136e+02
947           	3.095139e+02
948           	3.095141e+02
949           	3.095143e+02
950           	3.095145e+02
951           	3.095147e+02
952           	3.095149e+02
953           	3.095151e+02
954           	3.095153e+02
955           	3.095155e+02
956           	3.095156e+02
957           	3.095158e+02
958           	3.095160e+02
959           	3.095162e+02
960           	3.095163e+02
961           	3.095165e+02
962           	3.095167e+02
963           	3.095168e+02
964           	3.095170e+02
965           	3.095171e+02
966           	3.095173e+02
967           	3.095174e+02
968           	3.095176e+02
969           	3.095178e+02
970           	3.095179e+02
971           	3.095181e+02
972           	3.095182e+02
973           	3.095184e+02
974           	3.095185e+02
975           	3.095187e+02
976           	3.095188e+02
977           	3.095190e+02
978           	3.095191e+02
979           	3.095193e+02
980           	3.095194e+02
981           	3.095196e+02
982           	3.095197e+02
983           	3.095199e+02
984           	3.095201e+02
985           	3.095202e+02
986           	3.095204e+02
987           	3.095205e+02
988           	3.095207e+02
989           	3.095209e+02
990           	3.095210e+02
991           	3.095212e+02
992           	3.095213e+02
993           	3.095215e+02
994           	3.095217e+02
995           	3.095218e+02
996           	3.095220e+02
997           	3.095222e+02
998           	3.095223e+02
999           	3.095225e+02
1000          	3.095227e+02
1001          	3.095229e+02
1002          	3.095230e+02
1003          	3.095232e+02
1004          	3.095234e+02
1005          	3.095236e+02
1006          	3.095238e+02
1007          	3.095239e+02
1008          	3.095241e+02
1009          	3.095243e+02
1010          	3.095245e+02
1011          	3.095247e+02
1012          	3.095249e+02
1013          	3.095251e+02
1014          	3.095253e+02
1015          	3.095255e+02
1016          	3.095257e+02
1017          	3.095259e+02
1018          	3.095261e+02
1019          	3.095263e+02
1020          	3.095265e+02
1021          	3.095267e+02
1022          	3.095269e+02
1023          	3.095271e+02
1024          	3.095273e+02
1025          	3.095275e+02
1026          	3.095278e+02
1027          	3.095280e+02
1028          	3.095282e+02
1029          	3.095284e+02
1030          	3.095287e+02
1031          	3.095289e+02
1032          	3.095291e+02
1033          	3.095293e+02
1034          	3.095296e+02
1035          	3.095298e+02
1036          	3.095300e+02
1037          	3.095303e+02
1038          	3.095305e+02
1039          	3.095308e+02
1040          	3.095310e+02
1041          	3.095313e+02
1042          	3.095315e+02
1043          	3.095318e+02
1044          	3.095320e+02
1045          	3.095323e+02
1046          	3.095325e+02
1047          	3.095328e+02
1048          	3.095330e+02
1049          	3.095333e+02
1050          	3.095336e+02
1051          	3.095338e+02
1052          	3.095341e+02
1053          	3.095344e+02
1054          	3.095346e+02
1055          	3.095349e+02
1056          	3.095352e+02
1057          	3.095354e+02
1058          	3.095357e+02
1059          	3.095360e+02
1060          	3.095363e+02
1061          	3.095365e+02
1062          	3.095368e+02
1063          	3.095371e+02
1064          	3.095374e+02
1065          	3.095376e+02
1066          	3.095379e+02
1067          	3.095382e+02
1068          	3.095385e+02