# Region      : all 
# Cells       : 2808
# Volume      : 3.875062e-07
# Time        	max(T)
1             	2.980991e+02
2             	2.983774e+02
3             	2.985994e+02
4             	2.988275e+02
5             	2.990362e+02
6             	2.992424e+02
7             	2.994454e+02
8             	2.996448e+02
9             	2.998383e+02
10            	3.000280e+02
11            	3.002124e+02
12            	3.003918e+02
13            	3.005663e+02
14            	3.007362e+02
15            	3.009014e+02
16            	3.010623e+02
17            	3.012189e+02
18            	3.013714e+02
19            	3.015200e+02
20            	3.016646e+02
21            	3.018055e+02
22            	3.019429e+02
23            	3.020768e+02
24            	3.022073e+02
25            	3.023346e+02
26            	3.024587e+02
27            	3.025799e+02
28            	3.026980e+02
29            	3.028134e+02
30            	3.029260e+02
31            	3.030359e+02
32            	3.031433e+02
33            	3.032481e+02
34            	3.033506e+02
35            	3.034507e+02
36            	3.035485e+02
37            	3.036441e+02
38            	3.037375e+02
39            	3.038289e+02
40            	3.039183e+02
41            	3.040057e+02
42            	3.040912e+02
43            	3.041749e+02
44            	3.042568e+02
45            	3.043370e+02
46            	3.044155e+02
47            	3.044923e+02
48            	3.045676e+02
49            	3.046413e+02
50            	3.047136e+02
51            	3.047844e+02
52            	3.048538e+02
53            	3.049218e+02
54            	3.049885e+02
55            	3.050539e+02
56            	3.051180e+02
57            	3.051808e+02
58            	3.052424e+02
59            	3.053028e+02
60            	3.053621e+02
61            	3.054202e+02
62            	3.054772e+02
63            	3.055332e+02
64            	3.055881e+02
65            	3.056419e+02
66            	3.056947e+02
67            	3.057466e+02
68            	3.057974e+02
69            	3.058473e+02
70            	3.058963e+02
71            	3.059444e+02
72            	3.059916e+02
73            	3.060379e+02
74            	3.060833e+02
75            	3.061280e+02
76            	3.061718e+02
77            	3.062148e+02
78            	3.062570e+02
79            	3.062985e+02
80            	3.063392e+02
81            	3.063792e+02
82            	3.064184e+02
83            	3.064570e+02
84            	3.064949e+02
85            	3.065322e+02
86            	3.065688e+02
87            	3.066048e+02
88            	3.066401e+02
89            	3.066749e+02
90            	3.067090e+02
91            	3.067426e+02
92            	3.067757e+02
93            	3.068082e+02
94            	3.068402e+02
95            	3.068716e+02
96            	3.069025e+02
97            	3.069330e+02
98            	3.069629e+02
99            	3.069924e+02
100           	3.070214e+02
101           	3.070500e+02
102           	3.070781e+02
103           	3.071058e+02
104           	3.071330e+02
105           	3.071598e+02
106           	3.071863e+02
107           	3.072123e+02
108           	3.072379e+02
109           	3.072632e+02
110           	3.072880e+02
111           	3.073125e+02
112           	3.073366e+02
113           	3.073604e+02
114           	3.073839e+02
115           	3.074070e+02
116           	3.074297e+02
117           	3.074521e+02
118           	3.074742e+02
119           	3.074960e+02
120           	3.075175e+02
121           	3.075387e+02
122           	3.075596e+02
123           	3.075801e+02
124           	3.076004e+02
125           	3.076204e+02
126           	3.076402e+02
127           	3.076596e+02
128           	3.076788e+02
129           	3.076978e+02
130           	3.077164e+02
131           	3.077349e+02
132           	3.077531e+02
133           	3.077710e+02
134           	3.077887e+02
135           	3.078062e+02
136           	3.078234e+02
137           	3.078404e+02
138           	3.078572e+02
139           	3.078738e+02
140           	3.078901e+02
141           	3.079063e+02
142           	3.079223e+02
143           	3.079380e+02
144           	3.079536e+02
145           	3.079689e+02
146           	3.079841e+02
147           	3.079991e+02
148           	3.080139e+02
149           	3.080286e+02
150           	3.080430e+02
151           	3.080573e+02
152           	3.080714e+02
153           	3.080854e+02
154           	3.080992e+02
155           	3.081128e+02
156           	3.081263e+02
157           	3.081396e+02
158           	3.081528e+02
159           	3.081658e+02
160           	3.081787e+02
161           	3.081914e+02
162           	3.082040e+02
163           	3.082165e+02
164           	3.082288e+02
165           	3.082410e+02
166           	3.082531e+02
167           	3.082650e+02
168           	3.082768e+02
169           	3.082885e+02
170           	3.083000e+02
171           	3.083115e+02
172           	3.083228e+02
173           	3.083340e+02
174           	3.083451e+02
175           	3.083561e+02
176           	3.083670e+02
177           	3.083777e+02
178           	3.083884e+02
179           	3.083990e+02
180           	3.084094e+02
181           	3.084198e+02
182           	3.084301e+02
183           	3.084402e+02
184           	3.084503e+02
185           	3.084603e+02
186           	3.084702e+02
187           	3.084800e+02
188           	3.084898e+02
189           	3.084994e+02
190           	3.085090e+02
191           	3.085184e+02
192           	3.085278e+02
193           	3.085372e+02
194           	3.085464e+02
195           	3.085556e+02
196           	3.085647e+02
197           	3.085737e+02
198           	3.085827e+02
199           	3.085915e+02
200           	3.086003e+02
201           	3.086091e+02
202           	3.086178e+02
203           	3.086264e+02
204           	3.086349e+02
205           	3.086434e+02
206           	3.086518e+02
207           	3.086602e+02
208           	3.086685e+02
209           	3.086767e+02
210           	3.086849e+02
211           	3.086930e+02
212           	3.087011e+02
213           	3.087091e+02
214           	3.087170e+02
215           	3.087249e+02
216           	3.087328e+02
217           	3.087406e+02
218           	3.087483e+02
219           	3.087560e+02
220           	3.087637e+02
221           	3.087713e+02
222           	3.087788e+02
223           	3.087864e+02
224           	3.087938e+02
225           	3.088012e+02
226           	3.088086e+02
227           	3.088159e+02
228           	3.088232e+02
229           	3.088305e+02
230           	3.088377e+02
231           	3.088448e+02
232           	3.088519e+02
233           	3.088590e+02
234           	3.088660e+02
235           	3.088730e+02
236           	3.088799e+02
237           	3.088868e+02
238           	3.088937e+02
239           	3.089005e+02
240           	3.089073e+02
241           	3.089140e+02
242           	3.089207e+02
243           	3.089274e+02
244           	3.089340e+02
245           	3.089406e+02
246           	3.089472e+02
247           	3.089537e+02
248           	3.089602e+02
249           	3.089667e+02
250           	3.089731e+02
251           	3.089795e+02
252           	3.089859e+02
253           	3.089922e+02
254           	3.089985e+02
255           	3.090048e+02
256           	3.090110e+02
257           	3.090172e+02
258           	3.090234e+02
259           	3.090295e+02
260           	3.090357e+02
261           	3.090418e+02
262           	3.090478e+02
263           	3.090539e+02
264           	3.090599e+02
265           	3.090659e+02
266           	3.090718e+02
267           	3.090778e+02
268           	3.090837e+02
269           	3.090896e+02
270           	3.090954e+02
271           	3.091013e+02
272           	3.091071e+02
273           	3.091129e+02
274           	3.091187e+02
275           	3.091244e+02
276           	3.091302e+02
277           	3.091359e+02
278           	3.091416e+02
279           	3.091472e+02
280           	3.091529e+02
281           	3.091585e+02
282           	3.091641e+02
283           	3.091697e+02
284           	3.091753e+02
285           	3.091809e+02
286           	3.091864e+02
287           	3.091919e+02
288           	3.091974e+02
289           	3.092029e+02
290           	3.092083e+02
291           	3.092137e+02
292           	3.092192e+02
293           	3.092245e+02
294           	3.092299e+02
295           	3.092353e+02
296           	3.092406e+02
297           	3.092459e+02
298           	3.092512e+02
299           	3.092565e+02
300           	3.092618e+02
301           	3.092670e+02
302           	3.092722e+02
303           	3.092774e+02
304           	3.092826e+02
305           	3.092878e+02
306           	3.092929e+02
307           	3.092981e+02
308           	3.093032e+02
309           	3.093083e+02
310           	3.093134e+02
311           	3.093185e+02
312           	3.093235e+02
313           	3.093285e+02
314           	3.093336e+02
315           	3.093386e+02
316           	3.093435e+02
317           	3.093485e+02
318           	3.093534e+02
319           	3.093584e+02
320           	3.093633e+02
321           	3.093682e+02
322           	3.093731e+02
323           	3.093779e+02
324           	3.093828e+02
325           	3.093876e+02
326           	3.093925e+02
327           	3.093973e+02
328           	3.094021e+02
329           	3.094069e+02
330           	3.094116e+02
331           	3.094164e+02
332           	3.094211e+02
333           	3.094258e+02
334           	3.094305e+02
335           	3.094352e+02
336           	3.094399e+02
337           	3.094446e+02
338           	3.094492e+02
339           	3.094538e+02
340           	3.094585e+02
341           	3.094631e+02
342           	3.094676e+02
343           	3.094722e+02
344           	3.094768e+02
345           	3.094813e+02
346           	3.094859e+02
347           	3.094904e+02
348           	3.094949e+02
349           	3.094994e+02
350           	3.095038e+02
351           	3.095083e+02
352           	3.095127e+02
353           	3.095172e+02
354           	3.095216e+02
355           	3.095260e+02
356           	3.095304e+02
357           	3.095348e+02
358           	3.095391e+02
359           	3.095435e+02
360           	3.095478e+02
361           	3.095521e+02
362           	3.095564e+02
363           	3.095607e+02
364           	3.095650e+02
365           	3.095693e+02
366           	3.095735e+02
367           	3.095778e+02
368           	3.095820e+02
369           	3.095862e+02
370           	3.095904e+02
371           	3.095946e+02
372           	3.095988e+02
373           	3.096029e+02
374           	3.096071e+02
375           	3.096112e+02
376           	3.096153e+02
377           	3.096194e+02
378           	3.096235e+02
379           	3.096276e+02
380           	3.096317e+02
381           	3.096357e+02
382           	3.096398e+02
383           	3.096438e+02
384           	3.096478e+02
385           	3.096518e+02
386           	3.096558e+02
387           	3.096598e+02
388           	3.096637e+02
389           	3.096677e+02
390           	3.096716e+02
391           	3.096755e+02
392           	3.096794e+02
393           	3.096833e+02
394           	3.096872e+02
395           	3.096911e+02
396           	3.096949e+02
397           	3.096988e+02
398           	3.097026e+02
399           	3.097064e+02
400           	3.097102e+02
401           	3.097140e+02
402           	3.097178e+02
403           	3.097216e+02
404           	3.097253e+02
405           	3.097290e+02
406           	3.097328e+02
407           	3.097365e+02
408           	3.097402e+02
409           	3.097439e+02
410           	3.097475e+02
411           	3.097512e+02
412           	3.097549e+02
413           	3.097585e+02
414           	3.097621e+02
415           	3.097657e+02
416           	3.097693e+02
417           	3.097729e+02
418           	3.097765e+02
419           	3.097801e+02
420           	3.097836e+02
421           	3.097872e+02
422           	3.097907e+02
423           	3.097942e+02
424           	3.097977e+02
425           	3.098012e+02
426           	3.098047e+02
427           	3.098081e+02
428           	3.098116e+02
429           	3.098151e+02
430           	3.098185e+02
431           	3.098219e+02
432           	3.098253e+02
433           	3.098287e+02
434           	3.098321e+02
435           	3.098355e+02
436           	3.098389e+02
437           	3.098422e+02
438           	3.098456e+02
439           	3.098489e+02
440           	3.098522e+02
441           	3.098556e+02
442           	3.098589e+02
443           	3.098621e+02
444           	3.098654e+02
445           	3.098687e+02
446           	3.098719e+02
447           	3.098752e+02
448           	3.098784e+02
449           	3.098816e+02
450           	3.098848e+02
451           	3.098880e+02
452           	3.098912e+02
453           	3.098944e+02
454           	3.098976e+02
455           	3.099007e+02
456           	3.099039e+02
457           	3.099070e+02
458           	3.099101e+02
459           	3.099132e+02
460           	3.099163e+02
461           	3.099194e+02
462           	3.099225e+02
463           	3.099255e+02
464           	3.099286e+02
465           	3.099316e+02
466           	3.099346e+02
467           	3.099377e+02
468           	3.099407e+02
469           	3.099437e+02
470           	3.099466e+02
471           	3.099496e+02
472           	3.099526e+02
473           	3.099555e+02
474           	3.099585e+02
475           	3.099614e+02
476           	3.099643e+02
477           	3.099672e+02
478           	3.099701e+02
479           	3.099730e+02
480           	3.099758e+02
481           	3.099787e+02
482           	3.099816e+02
483           	3.099844e+02
484           	3.099872e+02
485           	3.099900e+02
486           	3.099929e+02
487           	3.099957e+02
488           	3.099984e+02
489           	3.100012e+02
490           	3.100040e+02
491           	3.100067e+02
492           	3.100095e+02
493           	3.100122e+02
494           	3.100150e+02
495           	3.100177e+02
496           	3.100204e+02
497           	3.100231e+02
498           	3.100258e+02
499           	3.100284e+02
500           	3.100311e+02
501           	3.100338e+02
502           	3.100364e+02
503           	3.100391e+02
504           	3.100417e+02
505           	3.100443e+02
506           	3.100469e+02
507           	3.100495e+02
508           	3.100521e+02
509           	3.100547e+02
510           	3.100572e+02
511           	3.100598e+02
512           	3.100623e+02
513           	3.100649e+02
514           	3.100674e+02
515           	3.100699e+02
516           	3.100724e+02
517           	3.100749e+02
518           	3.100774e+02
519           	3.100799e+02
520           	3.100824e+02
521           	3.100849e+02
522           	3.100873e+02
523           	3.100898e+02
524           	3.100922e+02
525           	3.100946e+02
526           	3.100970e+02
527           	3.100994e+02
528           	3.101018e+02
529           	3.101042e+02
530           	3.101066e+02
531           	3.101090e+02
532           	3.101113e+02
533           	3.101137e+02
534           	3.101160e+02
535           	3.101184e+02
536           	3.101207e+02
537           	3.101230e+02
538           	3.101253e+02
539           	3.101276e+02
540           	3.101299e+02
541           	3.101322e+02
542           	3.101344e+02
543           	3.101367e+02
544           	3.101389e+02
545           	3.101412e+02
546           	3.101434e+02
547           	3.101457e+02
548           	3.101479e+02
549           	3.101501e+02
550           	3.101523e+02
551           	3.101545e+02
552           	3.101567e+02
553           	3.101588e+02
554           	3.101610e+02
555           	3.101632e+02
556           	3.101653e+02
557           	3.101675e+02
558           	3.101696e+02
559           	3.101717e+02
560           	3.101738e+02
561           	3.101759e+02
562           	3.101780e+02
563           	3.101801e+02
564           	3.101822e+02
565           	3.101843e+02
566           	3.101864e+02
567           	3.101884e+02
568           	3.101905e+02
569           	3.101925e+02
570           	3.101945e+02
571           	3.101966e+02
572           	3.101986e+02
573           	3.102006e+02
574           	3.102026e+02
575           	3.102046e+02
576           	3.102066e+02
577           	3.102085e+02
578           	3.102105e+02
579           	3.102125e+02
580           	3.102144e+02
581           	3.102164e+02
582           	3.102183e+02
583           	3.102202e+02
584           	3.102222e+02
585           	3.102241e+02
586           	3.102260e+02
587           	3.102279e+02
588           	3.102298e+02
589           	3.102317e+02
590           	3.102335e+02
591           	3.102354e+02
592           	3.102373e+02
593           	3.102391e+02
594           	3.102410e+02
595           	3.102428e+02
596           	3.102446e+02
597           	3.102464e+02
598           	3.102483e+02
599           	3.102501e+02
600           	3.102519e+02
601           	3.102537e+02
602           	3.102554e+02
603           	3.102572e+02
604           	3.102590e+02
605           	3.102608e+02
606           	3.102625e+02
607           	3.102643e+02
608           	3.102660e+02
609           	3.102678e+02
610           	3.102695e+02
611           	3.102712e+02
612           	3.102729e+02
613           	3.102746e+02
614           	3.102763e+02
615           	3.102780e+02
616           	3.102797e+02
617           	3.102814e+02
618           	3.102831e+02
619           	3.102847e+02
620           	3.102864e+02
621           	3.102880e+02
622           	3.102897e+02
623           	3.102913e+02
624           	3.102930e+02
625           	3.102946e+02
626           	3.102962e+02
627           	3.102978e+02
628           	3.102994e+02
629           	3.103010e+02
630           	3.103026e+02
631           	3.103042e+02
632           	3.103058e+02
633           	3.103073e+02
634           	3.103089e+02
635           	3.103104e+02
636           	3.103120e+02
637           	3.103135e+02
638           	3.103151e+02
639           	3.103166e+02
640           	3.103181e+02
641           	3.103196e+02
642           	3.103211e+02
643           	3.103226e+02
644           	3.103241e+02
645           	3.103256e+02
646           	3.103271e+02
647           	3.103286e+02
648           	3.103300e+02
649           	3.103315e+02
650           	3.103329e+02
651           	3.103344e+02
652           	3.103358e+02
653           	3.103372e+02
654           	3.103387e+02
655           	3.103401e+02
656           	3.103415e+02
657           	3.103429e+02
658           	3.103443e+02
659           	3.103457e+02
660           	3.103470e+02
661           	3.103484e+02
662           	3.103498e+02
663           	3.103511e+02
664           	3.103525e+02
665           	3.103538e+02
666           	3.103552e+02
667           	3.103565e+02
668           	3.103578e+02
669           	3.103591e+02
670           	3.103605e+02
671           	3.103618e+02
672           	3.103631e+02
673           	3.103643e+02
674           	3.103656e+02
675           	3.103669e+02
676           	3.103682e+02
677           	3.103695e+02
678           	3.103707e+02
679           	3.103720e+02
680           	3.103732e+02
681           	3.103745e+02
682           	3.103757e+02
683           	3.103769e+02
684           	3.103781e+02
685           	3.103794e+02
686           	3.103806e+02
687           	3.103818e+02
688           	3.103830e+02
689           	3.103842e+02
690           	3.103853e+02
691           	3.103865e+02
692           	3.103877e+02
693           	3.103889e+02
694           	3.103900e+02
695           	3.103912e+02
696           	3.103923e+02
697           	3.103935e+02
698           	3.103946e+02
699           	3.103958e+02
700           	3.103969e+02
701           	3.103980e+02
702           	3.103991e+02
703           	3.104002e+02
704           	3.104014e+02
705           	3.104025e+02
706           	3.104036e+02
707           	3.104046e+02
708           	3.104057e+02
709           	3.104068e+02
710           	3.104079e+02
711           	3.104090e+02
712           	3.104100e+02
713           	3.104111e+02
714           	3.104121e+02
715           	3.104132e+02
716           	3.104142e+02
717           	3.104153e+02
718           	3.104163e+02
719           	3.104173e+02
720           	3.104183e+02
721           	3.104194e+02
722           	3.104204e+02
723           	3.104214e+02
724           	3.104224e+02
725           	3.104234e+02
726           	3.104244e+02
727           	3.104253e+02
728           	3.104263e+02
729           	3.104273e+02
730           	3.104283e+02
731           	3.104292e+02
732           	3.104302e+02
733           	3.104312e+02
734           	3.104321e+02
735           	3.104331e+02
736           	3.104340e+02
737           	3.104349e+02
738           	3.104359e+02
739           	3.104368e+02
740           	3.104377e+02
741           	3.104387e+02
742           	3.104396e+02
743           	3.104405e+02
744           	3.104414e+02
745           	3.104423e+02
746           	3.104432e+02
747           	3.104441e+02
748           	3.104450e+02
749           	3.104459e+02
750           	3.104468e+02
751           	3.104477e+02
752           	3.104485e+02
753           	3.104494e+02
754           	3.104503e+02
755           	3.104512e+02
756           	3.104520e+02
757           	3.104529e+02
758           	3.104537e+02
759           	3.104546e+02
760           	3.104554e+02
761           	3.104563e+02
762           	3.104571e+02
763           	3.104580e+02
764           	3.104588e+02
765           	3.104596e+02
766           	3.104605e+02
767           	3.104613e+02
768           	3.104621e+02
769           	3.104629e+02
770           	3.104638e+02
771           	3.104646e+02
772           	3.104654e+02
773           	3.104662e+02
774           	3.104670e+02
775           	3.104678e+02
776           	3.104686e+02
777           	3.104694e+02
778           	3.104702e+02
779           	3.104710e+02
780           	3.104718e+02
781           	3.104726e+02
782           	3.104733e+02
783           	3.104741e+02
784           	3.104749e+02
785           	3.104757e+02
786           	3.104764e+02
787           	3.104772e+02
788           	3.104780e+02
789           	3.104787e+02
790           	3.104795e+02
791           	3.104802e+02
792           	3.104810e+02
793           	3.104817e+02
794           	3.104825e+02
795           	3.104832e+02
796           	3.104839e+02
797           	3.104847e+02
798           	3.104854e+02
799           	3.104861e+02
800           	3.104868e+02
801           	3.104875e+02
802           	3.104882e+02
803           	3.104890e+02
804           	3.104897e+02
805           	3.104903e+02
806           	3.104910e+02
807           	3.104917e+02
808           	3.104924e+02
809           	3.104931e+02
810           	3.104938e+02
811           	3.104944e+02
812           	3.104951e+02
813           	3.104957e+02
814           	3.104964e+02
815           	3.104970e+02
816           	3.104977e+02
817           	3.104983e+02
818           	3.104989e+02
819           	3.104996e+02
820           	3.105002e+02
821           	3.105008e+02
822           	3.105014e+02
823           	3.105020e+02
824           	3.105026e+02
825           	3.105032e+02
826           	3.105038e+02
827           	3.105044e+02
828           	3.105050e+02
829           	3.105056e+02
830           	3.105062e+02
831           	3.105068e+02
832           	3.105073e+02
833           	3.105079e+02
834           	3.105085e+02
835           	3.105090e+02
836           	3.105096e+02
837           	3.105102e+02
838           	3.105107e+02
839           	3.105113e+02
840           	3.105118e+02
841           	3.105124e+02
842           	3.105129e+02
843           	3.105134e+02
844           	3.105140e+02
845           	3.105145e+02
846           	3.105150e+02
847           	3.105156e+02
848           	3.105161e+02
849           	3.105166e+02
850           	3.105171e+02
851           	3.105177e+02
852           	3.105182e+02
853           	3.105187e+02
854           	3.105192e+02
855           	3.105197e+02
856           	3.105202e+02
857           	3.105207e+02
858           	3.105212e+02
859           	3.105217e+02
860           	3.105222e+02
861           	3.105226e+02
862           	3.105231e+02
863           	3.105236e+02
864           	3.105241e+02
865           	3.105246e+02
866           	3.105250e+02
867           	3.105255e+02
868           	3.105260e+02
869           	3.105264e+02
870           	3.105269e+02
871           	3.105273e+02
872           	3.105278e+02
873           	3.105283e+02
874           	3.105287e+02
875           	3.105292e+02
876           	3.105296e+02
877           	3.105301e+02
878           	3.105305e+02
879           	3.105310e+02
880           	3.105314e+02
881           	3.105318e+02
882           	3.105323e+02
883           	3.105327e+02
884           	3.105332e+02
885           	3.105336e+02
886           	3.105340e+02
887           	3.105345e+02
888           	3.105349e+02
889           	3.105354e+02
890           	3.105358e+02
891           	3.105362e+02
892           	3.105366e+02
893           	3.105371e+02
894           	3.105375e+02
895           	3.105379e+02
896           	3.105384e+02
897           	3.105388e+02
898           	3.105392e+02
899           	3.105396e+02
900           	3.105401e+02
901           	3.105405e+02
902           	3.105409e+02
903           	3.105413e+02
904           	3.105417e+02
905           	3.105421e+02
906           	3.105426e+02
907           	3.105430e+02
908           	3.105434e+02
909           	3.105438e+02
910           	3.105442e+02
911           	3.105446e+02
912           	3.105450e+02
913           	3.105453e+02
914           	3.105457e+02
915           	3.105461e+02
916           	3.105465e+02
917           	3.105469e+02
918           	3.105472e+02
919           	3.105476e+02
920           	3.105479e+02
921           	3.105483e+02
922           	3.105486e+02
923           	3.105490e+02
924           	3.105493e+02
925           	3.105497e+02
926           	3.105500e+02
927           	3.105503e+02
928           	3.105506e+02
929           	3.105509e+02
930           	3.105512e+02
931           	3.105515e+02
932           	3.105518e+02
933           	3.105521e+02
934           	3.105524e+02
935           	3.105527e+02
936           	3.105530e+02
937           	3.105532e+02
938           	3.105535e+02
939           	3.105538e+02
940           	3.105540e+02
941           	3.105543e+02
942           	3.105545e+02
943           	3.105548e+02
944           	3.105550e+02
945           	3.105552e+02
946           	3.105554e+02
947           	3.105557e+02
948           	3.105559e+02
949           	3.105561e+02
950           	3.105563e+02
951           	3.105565e+02
952           	3.105567e+02
953           	3.105569e+02
954           	3.105571e+02
955           	3.105573e+02
956           	3.105574e+02
957           	3.105576e+02
958           	3.105578e+02
959           	3.105580e+02
960           	3.105581e+02
961           	3.105583e+02
962           	3.105585e+02
963           	3.105586e+02
964           	3.105588e+02
965           	3.105589e+02
966           	3.105591e+02
967           	3.105592e+02
968           	3.105594e+02
969           	3.105595e+02
970           	3.105597e+02
971           	3.105598e+02
972           	3.105600e+02
973           	3.105601e+02
974           	3.105603e+02
975           	3.105604e+02
976           	3.105606e+02
977           	3.105607e+02
978           	3.105609e+02
979           	3.105610e+02
980           	3.105612e+02
981           	3.105613e+02
982           	3.105615e+02
983           	3.105616e+02
984           	3.105618e+02
985           	3.105619e+02
986           	3.105621e+02
987           	3.105623e+02
988           	3.105624e+02
989           	3.105626e+02
990           	3.105627e+02
991           	3.105629e+02
992           	3.105631e+02
993           	3.105632e+02
994           	3.105634e+02
995           	3.105635e+02
996           	3.105637e+02
997           	3.105639e+02
998           	3.105640e+02
999           	3.105642e+02
1000          	3.105644e+02
1001          	3.105646e+02
1002          	3.105647e+02
1003          	3.105649e+02
1004          	3.105651e+02
1005          	3.105653e+02
1006          	3.105654e+02
1007          	3.105656e+02
1008          	3.105658e+02
1009          	3.105660e+02
1010          	3.105662e+02
1011          	3.105664e+02
1012          	3.105666e+02
1013          	3.105668e+02
1014          	3.105669e+02
1015          	3.105671e+02
1016          	3.105673e+02
1017          	3.105675e+02
1018          	3.105677e+02
1019          	3.105679e+02
1020          	3.105681e+02
1021          	3.105684e+02
1022          	3.105686e+02
1023          	3.105688e+02
1024          	3.105690e+02
1025          	3.105692e+02
1026          	3.105694e+02
1027          	3.105696e+02
1028          	3.105699e+02
1029          	3.105701e+02
1030          	3.105703e+02
1031          	3.105705e+02
1032          	3.105708e+02
1033          	3.105710e+02
1034          	3.105712e+02
1035          	3.105715e+02
1036          	3.105717e+02
1037          	3.105719e+02
1038          	3.105722e+02
1039          	3.105724e+02
1040          	3.105727e+02
1041          	3.105729e+02
1042          	3.105732e+02
1043          	3.105734e+02
1044          	3.105737e+02
1045          	3.105739e+02
1046          	3.105742e+02
1047          	3.105744e+02
1048          	3.105747e+02
1049          	3.105750e+02
1050          	3.105752e+02
1051          	3.105755e+02
1052          	3.105758e+02
1053          	3.105760e+02
1054          	3.105763e+02
1055          	3.105766e+02
1056          	3.105769e+02
1057          	3.105771e+02
1058          	3.105774e+02
1059          	3.105777e+02
1060          	3.105780e+02
1061          	3.105782e+02
1062          	3.105785e+02
1063          	3.105788e+02
1064          	3.105791e+02
1065          	3.105793e+02
1066          	3.105796e+02
1067          	3.105799e+02
1068          	3.105802e+02